+ 0.330367 /NodeList/3/DeviceList/1/$ns3::PointToPointNetDevice/TxQueue/Enqueue ns3::PppHeader (Point-to-Point Protocol: IP (0x0021)) ns3::Ipv4Header (tos 0x0 DSCP Default ECN Not-ECT ttl 64 id 0 protocol 17 offset (bytes) 0 flags [none] length: 64 10.1.3.1 > 10.1.3.255) ns3::UdpHeader (length: 44 698 > 698) ns3::olsr::PacketHeader () ns3::olsr::MessageHeader () ns3::olsr::MessageHeader ()
- 0.330367 /NodeList/3/DeviceList/1/$ns3::PointToPointNetDevice/TxQueue/Dequeue ns3::PppHeader (Point-to-Point Protocol: IP (0x0021)) ns3::Ipv4Header (tos 0x0 DSCP Default ECN Not-ECT ttl 64 id 0 protocol 17 offset (bytes) 0 flags [none] length: 64 10.1.3.1 > 10.1.3.255) ns3::UdpHeader (length: 44 698 > 698) ns3::olsr::PacketHeader () ns3::olsr::MessageHeader () ns3::olsr::MessageHeader ()
+ 0.330367 /NodeList/3/DeviceList/2/$ns3::PointToPointNetDevice/TxQueue/Enqueue ns3::PppHeader (Point-to-Point Protocol: IP (0x0021)) ns3::Ipv4Header (tos 0x0 DSCP Default ECN Not-ECT ttl 64 id 1 protocol 17 offset (bytes) 0 flags [none] length: 64 10.1.4.1 > 10.1.4.255) ns3::UdpHeader (length: 44 698 > 698) ns3::olsr::PacketHeader () ns3::olsr::MessageHeader () ns3::olsr::MessageHeader ()
- 0.330367 /NodeList/3/DeviceList/2/$ns3::PointToPointNetDevice/TxQueue/Dequeue ns3::PppHeader (Point-to-Point Protocol: IP (0x0021)) ns3::Ipv4Header (tos 0x0 DSCP Default ECN Not-ECT ttl 64 id 1 protocol 17 offset (bytes) 0 flags [none] length: 64 10.1.4.1 > 10.1.4.255) ns3::UdpHeader (length: 44 698 > 698) ns3::olsr::PacketHeader () ns3::olsr::MessageHeader () ns3::olsr::MessageHeader ()
r 0.340719 /NodeList/2/DeviceList/3/$ns3::PointToPointNetDevice/MacRx ns3::Ipv4Header (tos 0x0 DSCP Default ECN Not-ECT ttl 64 id 0 protocol 17 offset (bytes) 0 flags [none] length: 64 10.1.3.1 > 10.1.3.255) ns3::UdpHeader (length: 44 698 > 698) ns3::olsr::PacketHeader () ns3::olsr::MessageHeader () ns3::olsr::MessageHeader ()
r 0.340719 /NodeList/4/DeviceList/1/$ns3::PointToPointNetDevice/MacRx ns3::Ipv4Header (tos 0x0 DSCP Default ECN Not-ECT ttl 64 id 1 protocol 17 offset (bytes) 0 flags [none] length: 64 10.1.4.1 > 10.1.4.255) ns3::UdpHeader (length: 44 698 > 698) ns3::olsr::PacketHeader () ns3::olsr::MessageHeader () ns3::olsr::MessageHeader ()
+ 0.355766 /NodeList/4/DeviceList/1/$ns3::PointToPointNetDevice/TxQueue/Enqueue ns3::PppHeader (Point-to-Point Protocol: IP (0x0021)) ns3::Ipv4Header (tos 0x0 DSCP Default ECN Not-ECT ttl 64 id 0 protocol 17 offset (bytes) 0 flags [none] length: 48 10.1.4.2 > 10.1.4.255) ns3::UdpHeader (length: 28 698 > 698) ns3::olsr::PacketHeader () ns3::olsr::MessageHeader ()
- 0.355766 /NodeList/4/DeviceList/1/$ns3::PointToPointNetDevice/TxQueue/Dequeue ns3::PppHeader (Point-to-Point Protocol: IP (0x0021)) ns3::Ipv4Header (tos 0x0 DSCP Default ECN Not-ECT ttl 64 id 0 protocol 17 offset (bytes) 0 flags [none] length: 48 10.1.4.2 > 10.1.4.255) ns3::UdpHeader (length: 28 698 > 698) ns3::olsr::PacketHeader () ns3::olsr::MessageHeader ()
r 0.366033 /NodeList/3/DeviceList/2/$ns3::PointToPointNetDevice/MacRx ns3::Ipv4Header (tos 0x0 DSCP Default ECN Not-ECT ttl 64 id 0 protocol 17 offset (bytes) 0 flags [none] length: 48 10.1.4.2 > 10.1.4.255) ns3::UdpHeader (length: 28 698 > 698) ns3::olsr::PacketHeader () ns3::olsr::MessageHeader ()
+ 0.408266 /NodeList/0/DeviceList/1/$ns3::PointToPointNetDevice/TxQueue/Enqueue ns3::PppHeader (Point-to-Point Protocol: IP (0x0021)) ns3::Ipv4Header (tos 0x0 DSCP Default ECN Not-ECT ttl 64 id 0 protocol 17 offset (bytes) 0 flags [none] length: 48 10.1.1.1 > 10.1.1.255) ns3::UdpHeader (length: 28 698 > 698) ns3::olsr::PacketHeader () ns3::olsr::MessageHeader ()
- 0.408266 /NodeList/0/DeviceList/1/$ns3::PointToPointNetDevice/TxQueue/Dequeue ns3::PppHeader (Point-to-Point Protocol: IP (0x0021)) ns3::Ipv4Header (tos 0x0 DSCP Default ECN Not-ECT ttl 64 id 0 protocol 17 offset (bytes) 0 flags [none] length: 48 10.1.1.1 > 10.1.1.255) ns3::UdpHeader (length: 28 698 > 698) ns3::olsr::PacketHeader () ns3::olsr::MessageHeader ()
r 0.410346 /NodeList/2/DeviceList/1/$ns3::PointToPointNetDevice/MacRx ns3::Ipv4Header (tos 0x0 DSCP Default ECN Not-ECT ttl 64 id 0 protocol 17 offset (bytes) 0 flags [none] length: 48 10.1.1.1 > 10.1.1.255) ns3::UdpHeader (length: 28 698 > 698) ns3::olsr::PacketHeader () ns3::olsr::MessageHeader ()
+ 0.417575 /NodeList/1/DeviceList/1/$ns3::PointToPointNetDevice/TxQueue/Enqueue ns3::PppHeader (Point-to-Point Protocol: IP (0x0021)) ns3::Ipv4Header (tos 0x0 DSCP Default ECN Not-ECT ttl 64 id 0 protocol 17 offset (bytes) 0 flags [none] length: 48 10.1.2.1 > 10.1.2.255) ns3::UdpHeader (length: 28 698 > 698) ns3::olsr::PacketHeader () ns3::olsr::MessageHeader ()
- 0.417575 /NodeList/1/DeviceList/1/$ns3::PointToPointNetDevice/TxQueue/Dequeue ns3::PppHeader (Point-to-Point Protocol: IP (0x0021)) ns3::Ipv4Header (tos 0x0 DSCP Default ECN Not-ECT ttl 64 id 0 protocol 17 offset (bytes) 0 flags [none] length: 48 10.1.2.1 > 10.1.2.255) ns3::UdpHeader (length: 28 698 > 698) ns3::olsr::PacketHeader () ns3::olsr::MessageHeader ()
r 0.419655 /NodeList/2/DeviceList/2/$ns3::PointToPointNetDevice/MacRx ns3::Ipv4Header (tos 0x0 DSCP Default ECN Not-ECT ttl 64 id 0 protocol 17 offset (bytes) 0 flags [none] length: 48 10.1.2.1 > 10.1.2.255) ns3::UdpHeader (length: 28 698 > 698) ns3::olsr::PacketHeader () ns3::olsr::MessageHeader ()
+ 0.471949 /NodeList/2/DeviceList/1/$ns3::PointToPointNetDevice/TxQueue/Enqueue ns3::PppHeader (Point-to-Point Protocol: IP (0x0021)) ns3::Ipv4Header (tos 0x0 DSCP Default ECN Not-ECT ttl 64 id 0 protocol 17 offset (bytes) 0 flags [none] length: 68 10.1.1.2 > 10.1.1.255) ns3::UdpHeader (length: 48 698 > 698) ns3::olsr::PacketHeader () ns3::olsr::MessageHeader () ns3::olsr::MessageHeader ()
- 0.471949 /NodeList/2/DeviceList/1/$ns3::PointToPointNetDevice/TxQueue/Dequeue ns3::PppHeader (Point-to-Point Protocol: IP (0x0021)) ns3::Ipv4Header (tos 0x0 DSCP Default ECN Not-ECT ttl 64 id 0 protocol 17 offset (bytes) 0 flags [none] length: 68 10.1.1.2 > 10.1.1.255) ns3::UdpHeader (length: 48 698 > 698) ns3::olsr::PacketHeader () ns3::olsr::MessageHeader () ns3::olsr::MessageHeader ()
+ 0.471949 /NodeList/2/DeviceList/2/$ns3::PointToPointNetDevice/TxQueue/Enqueue ns3::PppHeader (Point-to-Point Protocol: IP (0x0021)) ns3::Ipv4Header (tos 0x0 DSCP Default ECN Not-ECT ttl 64 id 1 protocol 17 offset (bytes) 0 flags [none] length: 68 10.1.2.2 > 10.1.2.255) ns3::UdpHeader (length: 48 698 > 698) ns3::olsr::PacketHeader () ns3::olsr::MessageHeader () ns3::olsr::MessageHeader ()
- 0.471949 /NodeList/2/DeviceList/2/$ns3::PointToPointNetDevice/TxQueue/Dequeue ns3::PppHeader (Point-to-Point Protocol: IP (0x0021)) ns3::Ipv4Header (tos 0x0 DSCP Default ECN Not-ECT ttl 64 id 1 protocol 17 offset (bytes) 0 flags [none] length: 68 10.1.2.2 > 10.1.2.255) ns3::UdpHeader (length: 48 698 > 698) ns3::olsr::PacketHeader () ns3::olsr::MessageHeader () ns3::olsr::MessageHeader ()
+ 0.471949 /NodeList/2/DeviceList/3/$ns3::PointToPointNetDevice/TxQueue/Enqueue ns3::PppHeader (Point-to-Point Protocol: IP (0x0021)) ns3::Ipv4Header (tos 0x0 DSCP Default ECN Not-ECT ttl 64 id 2 protocol 17 offset (bytes) 0 flags [none] length: 68 10.1.3.2 > 10.1.3.255) ns3::UdpHeader (length: 48 698 > 698) ns3::olsr::PacketHeader () ns3::olsr::MessageHeader () ns3::olsr::MessageHeader ()
- 0.471949 /NodeList/2/DeviceList/3/$ns3::PointToPointNetDevice/TxQueue/Dequeue ns3::PppHeader (Point-to-Point Protocol: IP (0x0021)) ns3::Ipv4Header (tos 0x0 DSCP Default ECN Not-ECT ttl 64 id 2 protocol 17 offset (bytes) 0 flags [none] length: 68 10.1.3.2 > 10.1.3.255) ns3::UdpHeader (length: 48 698 > 698) ns3::olsr::PacketHeader () ns3::olsr::MessageHeader () ns3::olsr::MessageHeader ()
r 0.474061 /NodeList/0/DeviceList/1/$ns3::PointToPointNetDevice/MacRx ns3::Ipv4Header (tos 0x0 DSCP Default ECN Not-ECT ttl 64 id 0 protocol 17 offset (bytes) 0 flags [none] length: 68 10.1.1.2 > 10.1.1.255) ns3::UdpHeader (length: 48 698 > 698) ns3::olsr::PacketHeader () ns3::olsr::MessageHeader () ns3::olsr::MessageHeader ()
r 0.474061 /NodeList/1/DeviceList/1/$ns3::PointToPointNetDevice/MacRx ns3::Ipv4Header (tos 0x0 DSCP Default ECN Not-ECT ttl 64 id 1 protocol 17 offset (bytes) 0 flags [none] length: 68 10.1.2.2 > 10.1.2.255) ns3::UdpHeader (length: 48 698 > 698) ns3::olsr::PacketHeader () ns3::olsr::MessageHeader () ns3::olsr::MessageHeader ()
r 0.482323 /NodeList/3/DeviceList/1/$ns3::PointToPointNetDevice/MacRx ns3::Ipv4Header (tos 0x0 DSCP Default ECN Not-ECT ttl 64 id 2 protocol 17 offset (bytes) 0 flags [none] length: 68 10.1.3.2 > 10.1.3.255) ns3::UdpHeader (length: 48 698 > 698) ns3::olsr::PacketHeader () ns3::olsr::MessageHeader () ns3::olsr::MessageHeader ()
+ 2.02849 /NodeList/0/DeviceList/1/$ns3::PointToPointNetDevice/TxQueue/Enqueue ns3::PppHeader (Point-to-Point Protocol: IP (0x0021)) ns3::Ipv4Header (tos 0x0 DSCP Default ECN Not-ECT ttl 64 id 1 protocol 17 offset (bytes) 0 flags [none] length: 56 10.1.1.1 > 10.1.1.255) ns3::UdpHeader (length: 36 698 > 698) ns3::olsr::PacketHeader () ns3::olsr::MessageHeader ()
- 2.02849 /NodeList/0/DeviceList/1/$ns3::PointToPointNetDevice/TxQueue/Dequeue ns3::PppHeader (Point-to-Point Protocol: IP (0x0021)) ns3::Ipv4Header (tos 0x0 DSCP Default ECN Not-ECT ttl 64 id 1 protocol 17 offset (bytes) 0 flags [none] length: 56 10.1.1.1 > 10.1.1.255) ns3::UdpHeader (length: 36 698 > 698) ns3::olsr::PacketHeader () ns3::olsr::MessageHeader ()
r 2.03059 /NodeList/2/DeviceList/1/$ns3::PointToPointNetDevice/MacRx ns3::Ipv4Header (tos 0x0 DSCP Default ECN Not-ECT ttl 64 id 1 protocol 17 offset (bytes) 0 flags [none] length: 56 10.1.1.1 > 10.1.1.255) ns3::UdpHeader (length: 36 698 > 698) ns3::olsr::PacketHeader () ns3::olsr::MessageHeader ()
+ 2.08751 /NodeList/1/DeviceList/1/$ns3::PointToPointNetDevice/TxQueue/Enqueue ns3::PppHeader (Point-to-Point Protocol: IP (0x0021)) ns3::Ipv4Header (tos 0x0 DSCP Default ECN Not-ECT ttl 64 id 1 protocol 17 offset (bytes) 0 flags [none] length: 56 10.1.2.1 > 10.1.2.255) ns3::UdpHeader (length: 36 698 > 698) ns3::olsr::PacketHeader () ns3::olsr::MessageHeader ()
- 2.08751 /NodeList/1/DeviceList/1/$ns3::PointToPointNetDevice/TxQueue/Dequeue ns3::PppHeader (Point-to-Point Protocol: IP (0x0021)) ns3::Ipv4Header (tos 0x0 DSCP Default ECN Not-ECT ttl 64 id 1 protocol 17 offset (bytes) 0 flags [none] length: 56 10.1.2.1 > 10.1.2.255) ns3::UdpHeader (length: 36 698 > 698) ns3::olsr::PacketHeader () ns3::olsr::MessageHeader ()
r 2.0896 /NodeList/2/DeviceList/2/$ns3::PointToPointNetDevice/MacRx ns3::Ipv4Header (tos 0x0 DSCP Default ECN Not-ECT ttl 64 id 1 protocol 17 offset (bytes) 0 flags [none] length: 56 10.1.2.1 > 10.1.2.255) ns3::UdpHeader (length: 36 698 > 698) ns3::olsr::PacketHeader () ns3::olsr::MessageHeader ()
+ 2.15691 /NodeList/3/DeviceList/1/$ns3::PointToPointNetDevice/TxQueue/Enqueue ns3::PppHeader (Point-to-Point Protocol: IP (0x0021)) ns3::Ipv4Header (tos 0x0 DSCP Default ECN Not-ECT ttl 64 id 2 protocol 17 offset (bytes) 0 flags [none] length: 64 10.1.3.1 > 10.1.3.255) ns3::UdpHeader (length: 44 698 > 698) ns3::olsr::PacketHeader () ns3::olsr::MessageHeader ()
- 2.15691 /NodeList/3/DeviceList/1/$ns3::PointToPointNetDevice/TxQueue/Dequeue ns3::PppHeader (Point-to-Point Protocol: IP (0x0021)) ns3::Ipv4Header (tos 0x0 DSCP Default ECN Not-ECT ttl 64 id 2 protocol 17 offset (bytes) 0 flags [none] length: 64 10.1.3.1 > 10.1.3.255) ns3::UdpHeader (length: 44 698 > 698) ns3::olsr::PacketHeader () ns3::olsr::MessageHeader ()
+ 2.15691 /NodeList/3/DeviceList/2/$ns3::PointToPointNetDevice/TxQueue/Enqueue ns3::PppHeader (Point-to-Point Protocol: IP (0x0021)) ns3::Ipv4Header (tos 0x0 DSCP Default ECN Not-ECT ttl 64 id 3 protocol 17 offset (bytes) 0 flags [none] length: 64 10.1.4.1 > 10.1.4.255) ns3::UdpHeader (length: 44 698 > 698) ns3::olsr::PacketHeader () ns3::olsr::MessageHeader ()
- 2.15691 /NodeList/3/DeviceList/2/$ns3::PointToPointNetDevice/TxQueue/Dequeue ns3::PppHeader (Point-to-Point Protocol: IP (0x0021)) ns3::Ipv4Header (tos 0x0 DSCP Default ECN Not-ECT ttl 64 id 3 protocol 17 offset (bytes) 0 flags [none] length: 64 10.1.4.1 > 10.1.4.255) ns3::UdpHeader (length: 44 698 > 698) ns3::olsr::PacketHeader () ns3::olsr::MessageHeader ()
r 2.16727 /NodeList/2/DeviceList/3/$ns3::PointToPointNetDevice/MacRx ns3::Ipv4Header (tos 0x0 DSCP Default ECN Not-ECT ttl 64 id 2 protocol 17 offset (bytes) 0 flags [none] length: 64 10.1.3.1 > 10.1.3.255) ns3::UdpHeader (length: 44 698 > 698) ns3::olsr::PacketHeader () ns3::olsr::MessageHeader ()
r 2.16727 /NodeList/4/DeviceList/1/$ns3::PointToPointNetDevice/MacRx ns3::Ipv4Header (tos 0x0 DSCP Default ECN Not-ECT ttl 64 id 3 protocol 17 offset (bytes) 0 flags [none] length: 64 10.1.4.1 > 10.1.4.255) ns3::UdpHeader (length: 44 698 > 698) ns3::olsr::PacketHeader () ns3::olsr::MessageHeader ()
+ 2.29664 /NodeList/2/DeviceList/1/$ns3::PointToPointNetDevice/TxQueue/Enqueue ns3::PppHeader (Point-to-Point Protocol: IP (0x0021)) ns3::Ipv4Header (tos 0x0 DSCP Default ECN Not-ECT ttl 64 id 3 protocol 17 offset (bytes) 0 flags [none] length: 72 10.1.1.2 > 10.1.1.255) ns3::UdpHeader (length: 52 698 > 698) ns3::olsr::PacketHeader () ns3::olsr::MessageHeader ()
- 2.29664 /NodeList/2/DeviceList/1/$ns3::PointToPointNetDevice/TxQueue/Dequeue ns3::PppHeader (Point-to-Point Protocol: IP (0x0021)) ns3::Ipv4Header (tos 0x0 DSCP Default ECN Not-ECT ttl 64 id 3 protocol 17 offset (bytes) 0 flags [none] length: 72 10.1.1.2 > 10.1.1.255) ns3::UdpHeader (length: 52 698 > 698) ns3::olsr::PacketHeader () ns3::olsr::MessageHeader ()
+ 2.29664 /NodeList/2/DeviceList/2/$ns3::PointToPointNetDevice/TxQueue/Enqueue ns3::PppHeader (Point-to-Point Protocol: IP (0x0021)) ns3::Ipv4Header (tos 0x0 DSCP Default ECN Not-ECT ttl 64 id 4 protocol 17 offset (bytes) 0 flags [none] length: 72 10.1.2.2 > 10.1.2.255) ns3::UdpHeader (length: 52 698 > 698) ns3::olsr::PacketHeader () ns3::olsr::MessageHeader ()
- 2.29664 /NodeList/2/DeviceList/2/$ns3::PointToPointNetDevice/TxQueue/Dequeue ns3::PppHeader (Point-to-Point Protocol: IP (0x0021)) ns3::Ipv4Header (tos 0x0 DSCP Default ECN Not-ECT ttl 64 id 4 protocol 17 offset (bytes) 0 flags [none] length: 72 10.1.2.2 > 10.1.2.255) ns3::UdpHeader (length: 52 698 > 698) ns3::olsr::PacketHeader () ns3::olsr::MessageHeader ()
+ 2.29664 /NodeList/2/DeviceList/3/$ns3::PointToPointNetDevice/TxQueue/Enqueue ns3::PppHeader (Point-to-Point Protocol: IP (0x0021)) ns3::Ipv4Header (tos 0x0 DSCP Default ECN Not-ECT ttl 64 id 5 protocol 17 offset (bytes) 0 flags [none] length: 72 10.1.3.2 > 10.1.3.255) ns3::UdpHeader (length: 52 698 > 698) ns3::olsr::PacketHeader () ns3::olsr::MessageHeader ()
- 2.29664 /NodeList/2/DeviceList/3/$ns3::PointToPointNetDevice/TxQueue/Dequeue ns3::PppHeader (Point-to-Point Protocol: IP (0x0021)) ns3::Ipv4Header (tos 0x0 DSCP Default ECN Not-ECT ttl 64 id 5 protocol 17 offset (bytes) 0 flags [none] length: 72 10.1.3.2 > 10.1.3.255) ns3::UdpHeader (length: 52 698 > 698) ns3::olsr::PacketHeader () ns3::olsr::MessageHeader ()
r 2.29876 /NodeList/0/DeviceList/1/$ns3::PointToPointNetDevice/MacRx ns3::Ipv4Header (tos 0x0 DSCP Default ECN Not-ECT ttl 64 id 3 protocol 17 offset (bytes) 0 flags [none] length: 72 10.1.1.2 > 10.1.1.255) ns3::UdpHeader (length: 52 698 > 698) ns3::olsr::PacketHeader () ns3::olsr::MessageHeader ()
r 2.29876 /NodeList/1/DeviceList/1/$ns3::PointToPointNetDevice/MacRx ns3::Ipv4Header (tos 0x0 DSCP Default ECN Not-ECT ttl 64 id 4 protocol 17 offset (bytes) 0 flags [none] length: 72 10.1.2.2 > 10.1.2.255) ns3::UdpHeader (length: 52 698 > 698) ns3::olsr::PacketHeader () ns3::olsr::MessageHeader ()
r 2.30704 /NodeList/3/DeviceList/1/$ns3::PointToPointNetDevice/MacRx ns3::Ipv4Header (tos 0x0 DSCP Default ECN Not-ECT ttl 64 id 5 protocol 17 offset (bytes) 0 flags [none] length: 72 10.1.3.2 > 10.1.3.255) ns3::UdpHeader (length: 52 698 > 698) ns3::olsr::PacketHeader () ns3::olsr::MessageHeader ()
+ 2.3944 /NodeList/4/DeviceList/1/$ns3::PointToPointNetDevice/TxQueue/Enqueue ns3::PppHeader (Point-to-Point Protocol: IP (0x0021)) ns3::Ipv4Header (tos 0x0 DSCP Default ECN Not-ECT ttl 64 id 1 protocol 17 offset (bytes) 0 flags [none] length: 56 10.1.4.2 > 10.1.4.255) ns3::UdpHeader (length: 36 698 > 698) ns3::olsr::PacketHeader () ns3::olsr::MessageHeader ()
- 2.3944 /NodeList/4/DeviceList/1/$ns3::PointToPointNetDevice/TxQueue/Dequeue ns3::PppHeader (Point-to-Point Protocol: IP (0x0021)) ns3::Ipv4Header (tos 0x0 DSCP Default ECN Not-ECT ttl 64 id 1 protocol 17 offset (bytes) 0 flags [none] length: 56 10.1.4.2 > 10.1.4.255) ns3::UdpHeader (length: 36 698 > 698) ns3::olsr::PacketHeader () ns3::olsr::MessageHeader ()
r 2.40471 /NodeList/3/DeviceList/2/$ns3::PointToPointNetDevice/MacRx ns3::Ipv4Header (tos 0x0 DSCP Default ECN Not-ECT ttl 64 id 1 protocol 17 offset (bytes) 0 flags [none] length: 56 10.1.4.2 > 10.1.4.255) ns3::UdpHeader (length: 36 698 > 698) ns3::olsr::PacketHeader () ns3::olsr::MessageHeader ()
+ 4.02407 /NodeList/2/DeviceList/1/$ns3::PointToPointNetDevice/TxQueue/Enqueue ns3::PppHeader (Point-to-Point Protocol: IP (0x0021)) ns3::Ipv4Header (tos 0x0 DSCP Default ECN Not-ECT ttl 64 id 6 protocol 17 offset (bytes) 0 flags [none] length: 72 10.1.1.2 > 10.1.1.255) ns3::UdpHeader (length: 52 698 > 698) ns3::olsr::PacketHeader () ns3::olsr::MessageHeader ()
- 4.02407 /NodeList/2/DeviceList/1/$ns3::PointToPointNetDevice/TxQueue/Dequeue ns3::PppHeader (Point-to-Point Protocol: IP (0x0021)) ns3::Ipv4Header (tos 0x0 DSCP Default ECN Not-ECT ttl 64 id 6 protocol 17 offset (bytes) 0 flags [none] length: 72 10.1.1.2 > 10.1.1.255) ns3::UdpHeader (length: 52 698 > 698) ns3::olsr::PacketHeader () ns3::olsr::MessageHeader ()
+ 4.02407 /NodeList/2/DeviceList/2/$ns3::PointToPointNetDevice/TxQueue/Enqueue ns3::PppHeader (Point-to-Point Protocol: IP (0x0021)) ns3::Ipv4Header (tos 0x0 DSCP Default ECN Not-ECT ttl 64 id 7 protocol 17 offset (bytes) 0 flags [none] length: 72 10.1.2.2 > 10.1.2.255) ns3::UdpHeader (length: 52 698 > 698) ns3::olsr::PacketHeader () ns3::olsr::MessageHeader ()
- 4.02407 /NodeList/2/DeviceList/2/$ns3::PointToPointNetDevice/TxQueue/Dequeue ns3::PppHeader (Point-to-Point Protocol: IP (0x0021)) ns3::Ipv4Header (tos 0x0 DSCP Default ECN Not-ECT ttl 64 id 7 protocol 17 offset (bytes) 0 flags [none] length: 72 10.1.2.2 > 10.1.2.255) ns3::UdpHeader (length: 52 698 > 698) ns3::olsr::PacketHeader () ns3::olsr::MessageHeader ()
+ 4.02407 /NodeList/2/DeviceList/3/$ns3::PointToPointNetDevice/TxQueue/Enqueue ns3::PppHeader (Point-to-Point Protocol: IP (0x0021)) ns3::Ipv4Header (tos 0x0 DSCP Default ECN Not-ECT ttl 64 id 8 protocol 17 offset (bytes) 0 flags [none] length: 72 10.1.3.2 > 10.1.3.255) ns3::UdpHeader (length: 52 698 > 698) ns3::olsr::PacketHeader () ns3::olsr::MessageHeader ()
- 4.02407 /NodeList/2/DeviceList/3/$ns3::PointToPointNetDevice/TxQueue/Dequeue ns3::PppHeader (Point-to-Point Protocol: IP (0x0021)) ns3::Ipv4Header (tos 0x0 DSCP Default ECN Not-ECT ttl 64 id 8 protocol 17 offset (bytes) 0 flags [none] length: 72 10.1.3.2 > 10.1.3.255) ns3::UdpHeader (length: 52 698 > 698) ns3::olsr::PacketHeader () ns3::olsr::MessageHeader ()
r 4.02619 /NodeList/0/DeviceList/1/$ns3::PointToPointNetDevice/MacRx ns3::Ipv4Header (tos 0x0 DSCP Default ECN Not-ECT ttl 64 id 6 protocol 17 offset (bytes) 0 flags [none] length: 72 10.1.1.2 > 10.1.1.255) ns3::UdpHeader (length: 52 698 > 698) ns3::olsr::PacketHeader () ns3::olsr::MessageHeader ()
r 4.02619 /NodeList/1/DeviceList/1/$ns3::PointToPointNetDevice/MacRx ns3::Ipv4Header (tos 0x0 DSCP Default ECN Not-ECT ttl 64 id 7 protocol 17 offset (bytes) 0 flags [none] length: 72 10.1.2.2 > 10.1.2.255) ns3::UdpHeader (length: 52 698 > 698) ns3::olsr::PacketHeader () ns3::olsr::MessageHeader ()
r 4.03446 /NodeList/3/DeviceList/1/$ns3::PointToPointNetDevice/MacRx ns3::Ipv4Header (tos 0x0 DSCP Default ECN Not-ECT ttl 64 id 8 protocol 17 offset (bytes) 0 flags [none] length: 72 10.1.3.2 > 10.1.3.255) ns3::UdpHeader (length: 52 698 > 698) ns3::olsr::PacketHeader () ns3::olsr::MessageHeader ()
+ 4.21014 /NodeList/0/DeviceList/1/$ns3::PointToPointNetDevice/TxQueue/Enqueue ns3::PppHeader (Point-to-Point Protocol: IP (0x0021)) ns3::Ipv4Header (tos 0x0 DSCP Default ECN Not-ECT ttl 64 id 2 protocol 17 offset (bytes) 0 flags [none] length: 56 10.1.1.1 > 10.1.1.255) ns3::UdpHeader (length: 36 698 > 698) ns3::olsr::PacketHeader () ns3::olsr::MessageHeader ()
- 4.21014 /NodeList/0/DeviceList/1/$ns3::PointToPointNetDevice/TxQueue/Dequeue ns3::PppHeader (Point-to-Point Protocol: IP (0x0021)) ns3::Ipv4Header (tos 0x0 DSCP Default ECN Not-ECT ttl 64 id 2 protocol 17 offset (bytes) 0 flags [none] length: 56 10.1.1.1 > 10.1.1.255) ns3::UdpHeader (length: 36 698 > 698) ns3::olsr::PacketHeader () ns3::olsr::MessageHeader ()
r 4.21223 /NodeList/2/DeviceList/1/$ns3::PointToPointNetDevice/MacRx ns3::Ipv4Header (tos 0x0 DSCP Default ECN Not-ECT ttl 64 id 2 protocol 17 offset (bytes) 0 flags [none] length: 56 10.1.1.1 > 10.1.1.255) ns3::UdpHeader (length: 36 698 > 698) ns3::olsr::PacketHeader () ns3::olsr::MessageHeader ()
+ 4.21374 /NodeList/3/DeviceList/1/$ns3::PointToPointNetDevice/TxQueue/Enqueue ns3::PppHeader (Point-to-Point Protocol: IP (0x0021)) ns3::Ipv4Header (tos 0x0 DSCP Default ECN Not-ECT ttl 64 id 4 protocol 17 offset (bytes) 0 flags [none] length: 64 10.1.3.1 > 10.1.3.255) ns3::UdpHeader (length: 44 698 > 698) ns3::olsr::PacketHeader () ns3::olsr::MessageHeader ()
- 4.21374 /NodeList/3/DeviceList/1/$ns3::PointToPointNetDevice/TxQueue/Dequeue ns3::PppHeader (Point-to-Point Protocol: IP (0x0021)) ns3::Ipv4Header (tos 0x0 DSCP Default ECN Not-ECT ttl 64 id 4 protocol 17 offset (bytes) 0 flags [none] length: 64 10.1.3.1 > 10.1.3.255) ns3::UdpHeader (length: 44 698 > 698) ns3::olsr::PacketHeader () ns3::olsr::MessageHeader ()
+ 4.21374 /NodeList/3/DeviceList/2/$ns3::PointToPointNetDevice/TxQueue/Enqueue ns3::PppHeader (Point-to-Point Protocol: IP (0x0021)) ns3::Ipv4Header (tos 0x0 DSCP Default ECN Not-ECT ttl 64 id 5 protocol 17 offset (bytes) 0 flags [none] length: 64 10.1.4.1 > 10.1.4.255) ns3::UdpHeader (length: 44 698 > 698) ns3::olsr::PacketHeader () ns3::olsr::MessageHeader ()
- 4.21374 /NodeList/3/DeviceList/2/$ns3::PointToPointNetDevice/TxQueue/Dequeue ns3::PppHeader (Point-to-Point Protocol: IP (0x0021)) ns3::Ipv4Header (tos 0x0 DSCP Default ECN Not-ECT ttl 64 id 5 protocol 17 offset (bytes) 0 flags [none] length: 64 10.1.4.1 > 10.1.4.255) ns3::UdpHeader (length: 44 698 > 698) ns3::olsr::PacketHeader () ns3::olsr::MessageHeader ()
r 4.22409 /NodeList/2/DeviceList/3/$ns3::PointToPointNetDevice/MacRx ns3::Ipv4Header (tos 0x0 DSCP Default ECN Not-ECT ttl 64 id 4 protocol 17 offset (bytes) 0 flags [none] length: 64 10.1.3.1 > 10.1.3.255) ns3::UdpHeader (length: 44 698 > 698) ns3::olsr::PacketHeader () ns3::olsr::MessageHeader ()
r 4.22409 /NodeList/4/DeviceList/1/$ns3::PointToPointNetDevice/MacRx ns3::Ipv4Header (tos 0x0 DSCP Default ECN Not-ECT ttl 64 id 5 protocol 17 offset (bytes) 0 flags [none] length: 64 10.1.4.1 > 10.1.4.255) ns3::UdpHeader (length: 44 698 > 698) ns3::olsr::PacketHeader () ns3::olsr::MessageHeader ()
+ 4.434 /NodeList/1/DeviceList/1/$ns3::PointToPointNetDevice/TxQueue/Enqueue ns3::PppHeader (Point-to-Point Protocol: IP (0x0021)) ns3::Ipv4Header (tos 0x0 DSCP Default ECN Not-ECT ttl 64 id 2 protocol 17 offset (bytes) 0 flags [none] length: 56 10.1.2.1 > 10.1.2.255) ns3::UdpHeader (length: 36 698 > 698) ns3::olsr::PacketHeader () ns3::olsr::MessageHeader ()
- 4.434 /NodeList/1/DeviceList/1/$ns3::PointToPointNetDevice/TxQueue/Dequeue ns3::PppHeader (Point-to-Point Protocol: IP (0x0021)) ns3::Ipv4Header (tos 0x0 DSCP Default ECN Not-ECT ttl 64 id 2 protocol 17 offset (bytes) 0 flags [none] length: 56 10.1.2.1 > 10.1.2.255) ns3::UdpHeader (length: 36 698 > 698) ns3::olsr::PacketHeader () ns3::olsr::MessageHeader ()
r 4.43609 /NodeList/2/DeviceList/2/$ns3::PointToPointNetDevice/MacRx ns3::Ipv4Header (tos 0x0 DSCP Default ECN Not-ECT ttl 64 id 2 protocol 17 offset (bytes) 0 flags [none] length: 56 10.1.2.1 > 10.1.2.255) ns3::UdpHeader (length: 36 698 > 698) ns3::olsr::PacketHeader () ns3::olsr::MessageHeader ()
+ 4.49565 /NodeList/4/DeviceList/1/$ns3::PointToPointNetDevice/TxQueue/Enqueue ns3::PppHeader (Point-to-Point Protocol: IP (0x0021)) ns3::Ipv4Header (tos 0x0 DSCP Default ECN Not-ECT ttl 64 id 2 protocol 17 offset (bytes) 0 flags [none] length: 56 10.1.4.2 > 10.1.4.255) ns3::UdpHeader (length: 36 698 > 698) ns3::olsr::PacketHeader () ns3::olsr::MessageHeader ()
- 4.49565 /NodeList/4/DeviceList/1/$ns3::PointToPointNetDevice/TxQueue/Dequeue ns3::PppHeader (Point-to-Point Protocol: IP (0x0021)) ns3::Ipv4Header (tos 0x0 DSCP Default ECN Not-ECT ttl 64 id 2 protocol 17 offset (bytes) 0 flags [none] length: 56 10.1.4.2 > 10.1.4.255) ns3::UdpHeader (length: 36 698 > 698) ns3::olsr::PacketHeader () ns3::olsr::MessageHeader ()
r 4.50596 /NodeList/3/DeviceList/2/$ns3::PointToPointNetDevice/MacRx ns3::Ipv4Header (tos 0x0 DSCP Default ECN Not-ECT ttl 64 id 2 protocol 17 offset (bytes) 0 flags [none] length: 56 10.1.4.2 > 10.1.4.255) ns3::UdpHeader (length: 36 698 > 698) ns3::olsr::PacketHeader () ns3::olsr::MessageHeader ()
+ 5.20203 /NodeList/2/DeviceList/1/$ns3::PointToPointNetDevice/TxQueue/Enqueue ns3::PppHeader (Point-to-Point Protocol: IP (0x0021)) ns3::Ipv4Header (tos 0x0 DSCP Default ECN Not-ECT ttl 64 id 9 protocol 17 offset (bytes) 0 flags [none] length: 52 10.1.1.2 > 10.1.1.255) ns3::UdpHeader (length: 32 698 > 698) ns3::olsr::PacketHeader () ns3::olsr::MessageHeader ()
- 5.20203 /NodeList/2/DeviceList/1/$ns3::PointToPointNetDevice/TxQueue/Dequeue ns3::PppHeader (Point-to-Point Protocol: IP (0x0021)) ns3::Ipv4Header (tos 0x0 DSCP Default ECN Not-ECT ttl 64 id 9 protocol 17 offset (bytes) 0 flags [none] length: 52 10.1.1.2 > 10.1.1.255) ns3::UdpHeader (length: 32 698 > 698) ns3::olsr::PacketHeader () ns3::olsr::MessageHeader ()
+ 5.20203 /NodeList/2/DeviceList/2/$ns3::PointToPointNetDevice/TxQueue/Enqueue ns3::PppHeader (Point-to-Point Protocol: IP (0x0021)) ns3::Ipv4Header (tos 0x0 DSCP Default ECN Not-ECT ttl 64 id 10 protocol 17 offset (bytes) 0 flags [none] length: 52 10.1.2.2 > 10.1.2.255) ns3::UdpHeader (length: 32 698 > 698) ns3::olsr::PacketHeader () ns3::olsr::MessageHeader ()
- 5.20203 /NodeList/2/DeviceList/2/$ns3::PointToPointNetDevice/TxQueue/Dequeue ns3::PppHeader (Point-to-Point Protocol: IP (0x0021)) ns3::Ipv4Header (tos 0x0 DSCP Default ECN Not-ECT ttl 64 id 10 protocol 17 offset (bytes) 0 flags [none] length: 52 10.1.2.2 > 10.1.2.255) ns3::UdpHeader (length: 32 698 > 698) ns3::olsr::PacketHeader () ns3::olsr::MessageHeader ()
+ 5.20203 /NodeList/2/DeviceList/3/$ns3::PointToPointNetDevice/TxQueue/Enqueue ns3::PppHeader (Point-to-Point Protocol: IP (0x0021)) ns3::Ipv4Header (tos 0x0 DSCP Default ECN Not-ECT ttl 64 id 11 protocol 17 offset (bytes) 0 flags [none] length: 52 10.1.3.2 > 10.1.3.255) ns3::UdpHeader (length: 32 698 > 698) ns3::olsr::PacketHeader () ns3::olsr::MessageHeader ()
- 5.20203 /NodeList/2/DeviceList/3/$ns3::PointToPointNetDevice/TxQueue/Dequeue ns3::PppHeader (Point-to-Point Protocol: IP (0x0021)) ns3::Ipv4Header (tos 0x0 DSCP Default ECN Not-ECT ttl 64 id 11 protocol 17 offset (bytes) 0 flags [none] length: 52 10.1.3.2 > 10.1.3.255) ns3::UdpHeader (length: 32 698 > 698) ns3::olsr::PacketHeader () ns3::olsr::MessageHeader ()
r 5.20412 /NodeList/0/DeviceList/1/$ns3::PointToPointNetDevice/MacRx ns3::Ipv4Header (tos 0x0 DSCP Default ECN Not-ECT ttl 64 id 9 protocol 17 offset (bytes) 0 flags [none] length: 52 10.1.1.2 > 10.1.1.255) ns3::UdpHeader (length: 32 698 > 698) ns3::olsr::PacketHeader () ns3::olsr::MessageHeader ()
r 5.20412 /NodeList/1/DeviceList/1/$ns3::PointToPointNetDevice/MacRx ns3::Ipv4Header (tos 0x0 DSCP Default ECN Not-ECT ttl 64 id 10 protocol 17 offset (bytes) 0 flags [none] length: 52 10.1.2.2 > 10.1.2.255) ns3::UdpHeader (length: 32 698 > 698) ns3::olsr::PacketHeader () ns3::olsr::MessageHeader ()
r 5.21232 /NodeList/3/DeviceList/1/$ns3::PointToPointNetDevice/MacRx ns3::Ipv4Header (tos 0x0 DSCP Default ECN Not-ECT ttl 64 id 11 protocol 17 offset (bytes) 0 flags [none] length: 52 10.1.3.2 > 10.1.3.255) ns3::UdpHeader (length: 32 698 > 698) ns3::olsr::PacketHeader () ns3::olsr::MessageHeader ()
+ 5.43951 /NodeList/3/DeviceList/1/$ns3::PointToPointNetDevice/TxQueue/Enqueue ns3::PppHeader (Point-to-Point Protocol: IP (0x0021)) ns3::Ipv4Header (tos 0x0 DSCP Default ECN Not-ECT ttl 64 id 6 protocol 17 offset (bytes) 0 flags [none] length: 48 10.1.3.1 > 10.1.3.255) ns3::UdpHeader (length: 28 698 > 698) ns3::olsr::PacketHeader () ns3::olsr::MessageHeader ()
- 5.43951 /NodeList/3/DeviceList/1/$ns3::PointToPointNetDevice/TxQueue/Dequeue ns3::PppHeader (Point-to-Point Protocol: IP (0x0021)) ns3::Ipv4Header (tos 0x0 DSCP Default ECN Not-ECT ttl 64 id 6 protocol 17 offset (bytes) 0 flags [none] length: 48 10.1.3.1 > 10.1.3.255) ns3::UdpHeader (length: 28 698 > 698) ns3::olsr::PacketHeader () ns3::olsr::MessageHeader ()
+ 5.43951 /NodeList/3/DeviceList/2/$ns3::PointToPointNetDevice/TxQueue/Enqueue ns3::PppHeader (Point-to-Point Protocol: IP (0x0021)) ns3::Ipv4Header (tos 0x0 DSCP Default ECN Not-ECT ttl 64 id 7 protocol 17 offset (bytes) 0 flags [none] length: 48 10.1.4.1 > 10.1.4.255) ns3::UdpHeader (length: 28 698 > 698) ns3::olsr::PacketHeader () ns3::olsr::MessageHeader ()
- 5.43951 /NodeList/3/DeviceList/2/$ns3::PointToPointNetDevice/TxQueue/Dequeue ns3::PppHeader (Point-to-Point Protocol: IP (0x0021)) ns3::Ipv4Header (tos 0x0 DSCP Default ECN Not-ECT ttl 64 id 7 protocol 17 offset (bytes) 0 flags [none] length: 48 10.1.4.1 > 10.1.4.255) ns3::UdpHeader (length: 28 698 > 698) ns3::olsr::PacketHeader () ns3::olsr::MessageHeader ()
r 5.44978 /NodeList/2/DeviceList/3/$ns3::PointToPointNetDevice/MacRx ns3::Ipv4Header (tos 0x0 DSCP Default ECN Not-ECT ttl 64 id 6 protocol 17 offset (bytes) 0 flags [none] length: 48 10.1.3.1 > 10.1.3.255) ns3::UdpHeader (length: 28 698 > 698) ns3::olsr::PacketHeader () ns3::olsr::MessageHeader ()